245
Lattice="14.7411 0.0 0.0 -7.370549999999996 12.766167079726788 0.0 0.0 0.0 30.8094" Properties=species:S:1:pos:R:3:REF_forces:R:3:forces:R:3 REF_energy=-63725.15897774 energy=-63725.15897774 free_energy=-63725.15897774 stress="-0.0 -0.0 -0.0 -0.0 -0.0 -0.0 -0.0 -0.0 -0.0" pbc="T T T"
H       13.64187828       1.36640116       1.67615768      -0.28701443       0.07813302      -0.50456339      -0.28701443       0.07813302      -0.50456339
H       11.18502337       5.62179870       1.67615768      -0.28703594       0.07826693      -0.50444369      -0.28703594       0.07826693      -0.50444369
H        8.72817583       9.87718347       1.67615768      -0.28751752       0.07743024      -0.50455387      -0.28751752       0.07743024      -0.50455387
H       10.62845545      -0.73569634       1.09451010       0.08406531      -0.62189671       0.40393492       0.08406531      -0.62189671       0.40393492
H        8.17160349       3.51969609       1.09451010       0.08514011      -0.62138333       0.40436530       0.08514011      -0.62138333       0.40436530
H        5.71475594       7.77508087       1.09451010       0.08455855      -0.62076719       0.40433378       0.08455855      -0.62076719       0.40433378
H        8.72818320       1.36640116       1.67615768      -0.28485703       0.08333145      -0.50464227      -0.28485703       0.08333145      -0.50464227
H        6.27132828       5.62179870       1.67615768      -0.28338274       0.08254414      -0.50342265      -0.28338274       0.08254414      -0.50342265
H        3.81448074       9.87718347       1.67615768      -0.28406150       0.08256453      -0.50384145      -0.28406150       0.08256453      -0.50384145
H        5.71476036      -0.73569634       1.09451010       0.08485599      -0.62082890       0.40362033       0.08485599      -0.62082890       0.40362033
H        3.25790840       3.51969609       1.09451010       0.08431686      -0.62150677       0.40395624       0.08431686      -0.62150677       0.40395624
H        0.80106086       7.77508087       1.09451010       0.08468491      -0.62189900       0.40403439       0.08468491      -0.62189900       0.40403439
H        3.81447337       1.36640116       1.67615768      -0.28447706       0.08100479      -0.50510009      -0.28447706       0.08100479      -0.50510009
H        1.35761846       5.62179870       1.67615768      -0.28451089       0.08092097      -0.50521083      -0.28451089       0.08092097      -0.50521083
H       -1.09922909       9.87718347       1.67615768      -0.28437063       0.08080765      -0.50518740      -0.28437063       0.08080765      -0.50518740
H        0.80106086      -0.73569634       1.09451010       0.08303091      -0.62158877       0.40422971       0.08303091      -0.62158877       0.40422971
H       -1.65579111       3.51969609       1.09451010       0.08292612      -0.62176988       0.40392044       0.08292612      -0.62176988       0.40392044
H       -4.11263865       7.77508087       1.09451010       0.08325504      -0.62148484       0.40385894       0.08325504      -0.62148484       0.40385894
H        9.40950947       2.84082963      13.31218717      -0.61771356       0.39116457      -0.57626071      -0.61771356       0.39116457      -0.57626071
H        6.95265456       7.09622717      13.31218717      -0.62487437       0.38839797      -0.56531325      -0.62487437       0.38839797      -0.56531325
H        4.49580701      11.35161194      13.31218717      -0.62292665       0.38489841      -0.57065804      -0.62292665       0.38489841      -0.57065804
H        3.19368880       8.43557682      11.38561377      -0.03530684       0.45250636       0.90689027      -0.03530684       0.45250636       0.90689027
H        5.65054371       4.18017928      11.38561377      -0.03290699       0.45814529       0.90313449      -0.03290699       0.45814529       0.90313449
H        8.10739148      -0.07520587      11.38561377      -0.03346499       0.45308644       0.90207087      -0.03346499       0.45308644       0.90207087
H        4.49579964       2.84082963      13.31218717      -0.47887704       0.53081654      -0.48519931      -0.47887704       0.53081654      -0.48519931
H        2.03894473       7.09622717      13.31218717      -0.46309723       0.52408016      -0.43963886      -0.46309723       0.52408016      -0.43963886
H       -0.41790281      11.35161194      13.31218717      -0.47499059       0.52396945      -0.48671562      -0.47499059       0.52396945      -0.48671562
H       -1.72000629       8.43557682      11.38561377      -0.04471007       0.44085289       0.88176884      -0.04471007       0.44085289       0.88176884
H        0.73684862       4.18017928      11.38561377      -0.04636463       0.44348419       0.88137860      -0.04636463       0.44348419       0.88137860
H        3.19369639      -0.07520587      11.38561377      -0.04795819       0.44060545       0.87927030      -0.04795819       0.44060545       0.87927030
H       -0.41789692       2.84082963      13.31218717      -0.46991929       0.64509926      -0.49013518      -0.46991929       0.64509926      -0.49013518
H       -2.87475183       7.09622717      13.31218717      -0.47082044       0.64179297      -0.49102451      -0.47082044       0.64179297      -0.49102451
H       -5.33159937      11.35161194      13.31218717      -0.47351823       0.64044123      -0.49220415      -0.47351823       0.64044123      -0.49220415
H       -1.03766214       0.32589088      12.79582163      -0.53522055      -0.11045375      -0.64816933      -0.53522055      -0.11045375      -0.64816933
H       -3.49451190       4.58127948      12.79582163      -0.53313070      -0.10883881      -0.64867016      -0.53313070      -0.10883881      -0.64867016
H       -5.95135944       8.83666426      12.79582163      -0.53555208      -0.11185247      -0.64752263      -0.53555208      -0.11185247      -0.64752263
O        1.37436189       1.13703995       3.08351185      -0.56423634       0.35591668       0.15470082      -0.56423634       0.35591668       0.15470082
O        6.28806189       9.64781800       8.48821185      -0.20791738       0.01022892      -0.48915211      -0.20791738       0.01022892      -0.48915211
O        3.24181358       9.13249039      12.09134518      -0.07533278      -0.93352561      -0.50597777      -0.07533278      -0.93352561      -0.50597777
O        2.75437454      11.00741480      10.28977852      -0.18267302       0.59702929      -0.71354085      -0.18267302       0.59702929      -0.71354085
O        5.21122454      10.26953034      10.80682815       0.71596856      -0.13647820      -0.46796665       0.71596856      -0.13647820      -0.46796665
O       -1.08248811      11.62912713       7.20369482      -0.28015331      -0.08740575       0.29631350      -0.28015331      -0.08740575       0.29631350
O        0.78496358      12.14445474       9.00526148       0.05996364       0.38819158       0.34266562       0.05996364       0.38819158       0.34266562
O        6.28806189       9.64781800       3.08351185      -0.56525574       0.34849716       0.13798447      -0.56525574       0.34849716       0.13798447
O        8.74491189       5.39242897       8.48821185      -0.20887660       0.00899037      -0.48729355      -0.20887660       0.00899037      -0.48729355
O        8.74491189       5.39242897       3.08351185      -0.56460317       0.34700028       0.13728834      -0.56460317       0.34700028       0.13728834
O       13.07236842       0.65596779       1.27994263       0.30819405      -0.52455640       0.16027910       0.30819405      -0.52455640       0.16027910
O       10.61551571       4.91136150       1.27994263       0.30778643      -0.52460668       0.16033382       0.30778643      -0.52460668       0.16033382
O        8.15866817       9.16674627       1.27994263       0.30824850      -0.52399340       0.16003550       0.30824850      -0.52399340       0.16003550
O        8.15865859       0.65596779       1.27994263       0.30297595      -0.53035309       0.16397872       0.30297595      -0.53035309       0.16397872
O        5.70180589       4.91136150       1.27994263       0.30124607      -0.53019876       0.16250466       0.30124607      -0.53019876       0.16250466
O        3.24495834       9.16674627       1.27994263       0.30240199      -0.52898654       0.16198456       0.30240199      -0.52898654       0.16198456
O        3.24496350       0.65596779       1.27994263       0.30564778      -0.52759404       0.16442031       0.30564778      -0.52759404       0.16442031
O        0.78811080       4.91136150       1.27994263       0.30522756      -0.52746071       0.16254417       0.30522756      -0.52746071       0.16254417
O       -1.66873674       9.16674627       1.27994263       0.30538699      -0.52587088       0.16380430       0.30538699      -0.52587088       0.16380430
O        8.77300351       3.13820472      12.61041066      -0.07417465      -0.73954268       0.87747074      -0.07417465      -0.73954268       0.87747074
O        6.31615597       7.39358950      12.61041066      -0.06702150      -0.74303510       0.87043960      -0.06702150      -0.74303510       0.87043960
O        3.85930106      11.64898703      12.61041066      -0.06925159      -0.73420134       0.86840633      -0.06925159      -0.73420134       0.86840633
O        3.85930843       3.13820472      12.61041066      -0.06384386      -0.83579426       0.63831848      -0.06384386      -0.83579426       0.63831848
O        1.40246088       7.39358950      12.61041066      -0.07468249      -0.84303241       0.58117917      -0.07468249      -0.84303241       0.58117917
O       -1.05439403      11.64898703      12.61041066      -0.06824159      -0.83060561       0.61960347      -0.06824159      -0.83060561       0.61960347
O       -1.05439698       3.13820472      12.61041066       0.04648584      -0.26064841       0.89281967       0.04648584      -0.26064841       0.89281967
O       -3.51124452       7.39358950      12.61041066       0.04955630      -0.25820447       0.89391890       0.04955630      -0.25820447       0.89391890
O       -5.96809944      11.64898703      12.61041066       0.05109529      -0.25586214       0.89606709       0.05109529      -0.25586214       0.89606709
O       11.20176189       1.13703995       3.08351185      -0.56431076       0.34789614       0.13874083      -0.56431076       0.34789614       0.13874083
O        1.37436189       9.64781800       8.48821185      -0.27690951      -0.00180046      -0.41359528      -0.27690951      -0.00180046      -0.41359528
O        1.37436189       9.64781800       3.08351185      -0.57580552       0.34859764       0.14743275      -0.57580552       0.34859764       0.14743275
O        3.83121189       5.39242897       8.48821185      -0.27272093      -0.00835838      -0.41996260      -0.27272093      -0.00835838      -0.41996260
O       11.20176189       1.13703995       8.48821185      -0.21090990       0.01268859      -0.48548538      -0.21090990       0.01268859      -0.48548538
O        6.28806189       1.13703995       8.48821185      -0.27598695      -0.00158992      -0.40926082      -0.27598695      -0.00158992      -0.40926082
O        6.28806189       1.13703995       3.08351185      -0.57459674       0.34910076       0.14935737      -0.57459674       0.34910076       0.14935737
O       -3.53933811       9.64781800       8.48821185      -0.22920477       0.06439563      -0.34005300      -0.22920477       0.06439563      -0.34005300
O       -3.53933811       9.64781800       3.08351185      -0.56343957       0.35685703       0.15360743      -0.56343957       0.35685703       0.15360743
O       -1.08248811       5.39242897       8.48821185      -0.23043010       0.06099410      -0.34457410      -0.23043010       0.06099410      -0.34457410
O       -1.08248811       5.39242897       3.08351185      -0.56518211       0.35607113       0.15177197      -0.56518211       0.35607113       0.15177197
O        1.37436189       1.13703995       8.48821185      -0.22701127       0.06287807      -0.34123640      -0.22701127       0.06287807      -0.34123640
O        3.83121189       5.39242897       3.08351185      -0.57418465       0.34944345       0.14609554      -0.57418465       0.34944345       0.14609554
O       13.06921357       0.62171234       6.68664518       0.14906892      -0.20982045      -0.36422682       0.14906892      -0.20982045      -0.36422682
O       13.06921357       0.62171234      12.09134518       0.58134299      -0.75631376       0.80173132       0.58134299      -0.75631376       0.80173132
O        8.15551358       9.13249039      12.09134518       0.58268716      -0.75250567       0.80167973       0.58268716      -0.75250567       0.80167973
O       10.61236357       4.87710136      12.09134518       0.57927430      -0.75965067       0.80320149       0.57927430      -0.75965067       0.80320149
O        8.15551358       9.13249039       6.68664518       0.14991085      -0.20865870      -0.36424044       0.14991085      -0.20865870      -0.36424044
O        3.24181358       9.13249039       6.68664518       0.05904354      -0.33394719      -0.25192176       0.05904354      -0.33394719      -0.25192176
O       10.61236357       4.87710136       6.68664518       0.14843131      -0.21120760      -0.36359171       0.14843131      -0.21120760      -0.36359171
O        5.69866358       4.87710136      12.09134518      -0.07978285      -0.96031358      -0.49100646      -0.07978285      -0.96031358      -0.49100646
O       -1.67188643       9.13249039       6.68664518       0.08718022      -0.31048692      -0.22249816       0.08718022      -0.31048692      -0.22249816
O        8.15551358       0.62171234      12.09134518      -0.08040373      -0.94435453      -0.49065871      -0.08040373      -0.94435453      -0.49065871
O        8.15551358       0.62171234       6.68664518       0.05807999      -0.33582427      -0.24707619       0.05807999      -0.33582427      -0.24707619
O       -1.67188643       9.13249039      12.09134518      -0.06475693      -0.93804846      -0.50686922      -0.06475693      -0.93804846      -0.50686922
O        0.78496358       4.87710136      12.09134518      -0.06587668      -0.95370703      -0.51679437      -0.06587668      -0.95370703      -0.51679437
O        0.78496358       4.87710136       6.68664518       0.08778082      -0.31322862      -0.22594191       0.08778082      -0.31322862      -0.22594191
O        3.24181358       0.62171234      12.09134518      -0.05966886      -0.94399812      -0.50130322      -0.05966886      -0.94399812      -0.50130322
O        3.24181358       0.62171234       6.68664518       0.08753967      -0.31262920      -0.22140412       0.08753967      -0.31262920      -0.22140412
O        5.69866358       4.87710136       6.68664518       0.05994620      -0.33645785      -0.24909599       0.05994620      -0.33645785      -0.24909599
O       12.58177453       2.49663674       4.88507852       0.23191344       0.24017254      -0.22112615       0.23191344       0.24017254      -0.22112615
O       12.58177453       2.49663674      10.28977852       0.47006215       0.23851213      -0.07005126       0.47006215       0.23851213      -0.07005126
O        7.66807453      11.00741480      10.28977852       0.47575050       0.24032994      -0.06878133       0.47575050       0.24032994      -0.06878133
O       10.12492453       6.75202577      10.28977852       0.47182474       0.23979868      -0.07003020       0.47182474       0.23979868      -0.07003020
O        7.66807453      11.00741480       4.88507852       0.23275909       0.23905122      -0.22032755       0.23275909       0.23905122      -0.22032755
O        2.75437454      11.00741480       4.88507852       0.18493724       0.21693046      -0.23850891       0.18493724       0.21693046      -0.23850891
O       10.12492453       6.75202577       4.88507852       0.23144372       0.24029830      -0.22074861       0.23144372       0.24029830      -0.22074861
O        5.21122454       6.75202577      10.28977852      -0.17413002       0.58934883      -0.71531414      -0.17413002       0.58934883      -0.71531414
O       -2.15932547      11.00741480       4.88507852       0.22744174       0.22211122      -0.19642929       0.22744174       0.22211122      -0.19642929
O        7.66807453       2.49663674      10.28977852      -0.17620299       0.59153102      -0.70266388      -0.17620299       0.59153102      -0.70266388
O        7.66807453       2.49663674       4.88507852       0.18636076       0.21538481      -0.23692037       0.18636076       0.21538481      -0.23692037
O       -2.15932547      11.00741480      10.28977852      -0.02703759       0.61829742      -0.63112031      -0.02703759       0.61829742      -0.63112031
O        0.29752453       6.75202577      10.28977852      -0.03888759       0.61594096      -0.64634684      -0.03888759       0.61594096      -0.64634684
O        0.29752453       6.75202577       4.88507852       0.22670877       0.22187319      -0.19564863       0.22670877       0.22187319      -0.19564863
O        2.75437454       2.49663674      10.28977852      -0.02152192       0.61493631      -0.63118953      -0.02152192       0.61493631      -0.63118953
O        2.75437454       2.49663674       4.88507852       0.22727831       0.22119249      -0.19636221       0.22727831       0.22119249      -0.19636221
O        5.21122454       6.75202577       4.88507852       0.18577738       0.21619313      -0.24462822       0.18577738       0.21619313      -0.24462822
O        5.21122454      10.26953034       5.40212815       0.17900481      -0.21891737       0.30008862       0.17900481      -0.21891737       0.30008862
O        7.66807453       6.01414131      10.80682815       0.71222866      -0.14138571      -0.46758741       0.71222866      -0.14138571      -0.46758741
O        7.66807453       6.01414131       5.40212815       0.17867683      -0.22055021       0.29937727       0.17867683      -0.22055021       0.29937727
O       10.12492453       1.75875228      10.80682815       0.70236567      -0.13823526      -0.46093984       0.70236567      -0.13823526      -0.46093984
O       10.12492453       1.75875228       5.40212815       0.17888511      -0.21863211       0.29984693       0.17888511      -0.21863211       0.29984693
O        0.29752453      10.26953034      10.80682815       0.68403787       0.05972222      -0.41780112       0.68403787       0.05972222      -0.41780112
O        0.29752453      10.26953034       5.40212815       0.14919124      -0.21935603       0.34556193       0.14919124      -0.21935603       0.34556193
O        2.75437454       6.01414131      10.80682815       0.69898032       0.05163632      -0.43171846       0.69898032       0.05163632      -0.43171846
O        5.21122454       1.75875228      10.80682815       0.68862385       0.05422338      -0.41368330       0.68862385       0.05422338      -0.41368330
O        5.21122454       1.75875228       5.40212815       0.14973096      -0.21994776       0.34568523       0.14973096      -0.21994776       0.34568523
O       -4.61617547      10.26953034      10.80682815       0.79831401       0.13777938      -0.22675645       0.79831401       0.13777938      -0.22675645
O       -4.61617547      10.26953034       5.40212815       0.20309841      -0.19950270       0.32383269       0.20309841      -0.19950270       0.32383269
O       -2.15932547       6.01414131      10.80682815       0.79119750       0.13591557      -0.22643096       0.79119750       0.13591557      -0.22643096
O       -2.15932547       6.01414131       5.40212815       0.20294383      -0.20059917       0.32379109       0.20294383      -0.20059917       0.32379109
O        0.29752453       1.75875228      10.80682815       0.79744915       0.13493361      -0.22734138       0.79744915       0.13493361      -0.22734138
O        0.29752453       1.75875228       5.40212815       0.20393361      -0.20067823       0.32406166       0.20393361      -0.20067823       0.32406166
O        2.75437454       6.01414131       5.40212815       0.15062065      -0.21875186       0.34548041       0.15062065      -0.21875186       0.34548041
O        8.74491189       3.11834908       1.79899482      -0.74374160      -0.02054441      -0.92831540      -0.74374160      -0.02054441      -0.92831540
O        8.74491189       3.11834908       7.20369482      -0.33121696      -0.13894386       0.18462139      -0.33121696      -0.13894386       0.18462139
O       -1.08248811      11.62912713       1.79899482      -0.74336730      -0.02056169      -0.92421020      -0.74336730      -0.02056169      -0.92421020
O        6.28806189       7.37373811       7.20369482      -0.33078297      -0.13853672       0.18754378      -0.33078297      -0.13853672       0.18754378
O        3.83121189      11.62912713       1.79899482      -0.74213368      -0.02008511      -0.92788969      -0.74213368      -0.02008511      -0.92788969
O        3.83121189      11.62912713       7.20369482      -0.33018442      -0.13940644       0.18430599      -0.33018442      -0.13940644       0.18430599
O        6.28806189       7.37373811       1.79899482      -0.74283951      -0.02064533      -0.92743753      -0.74283951      -0.02064533      -0.92743753
O        1.37436189       7.37373811       7.20369482      -0.28055263      -0.08789186       0.29466968      -0.28055263      -0.08789186       0.29466968
O        1.37436189       7.37373811       1.79899482      -0.74272709      -0.01819275      -0.92409326      -0.74272709      -0.01819275      -0.92409326
O        3.83121189       3.11834908       7.20369482      -0.27962874      -0.09058405       0.30568636      -0.27962874      -0.09058405       0.30568636
O        3.83121189       3.11834908       1.79899482      -0.74232865      -0.01935680      -0.92217280      -0.74232865      -0.01935680      -0.92217280
O       -5.99618811      11.62912713       7.20369482      -0.20440112      -0.00984280       0.33300277      -0.20440112      -0.00984280       0.33300277
O       -5.99618811      11.62912713       1.79899482      -0.73610710      -0.01492297      -0.92353791      -0.73610710      -0.01492297      -0.92353791
O       -3.53933811       7.37373811       7.20369482      -0.20704368      -0.00954351       0.33341477      -0.20704368      -0.00954351       0.33341477
O       -3.53933811       7.37373811       1.79899482      -0.73684194      -0.01516536      -0.92327048      -0.73684194      -0.01516536      -0.92327048
O       -1.08248811       3.11834908       7.20369482      -0.20549736      -0.01144317       0.33172331      -0.20549736      -0.01144317       0.33172331
O       -1.08248811       3.11834908       1.79899482      -0.73695602      -0.01492597      -0.92249585      -0.73695602      -0.01492597      -0.92249585
O       10.61236357       3.63367669       3.60056148      -0.07447906       0.03226018       0.41599457      -0.07447906       0.03226018       0.41599457
O       10.61236357       3.63367669       9.00526148       0.10495271       0.38243860       0.03942887       0.10495271       0.38243860       0.03942887
O        5.69866358      12.14445474       9.00526148       0.10595742       0.38403716       0.03639907       0.10595742       0.38403716       0.03639907
O        8.15551358       7.88906572       9.00526148       0.10587166       0.38392923       0.03743360       0.10587166       0.38392923       0.03743360
O        5.69866358      12.14445474       3.60056148      -0.07436863       0.03159539       0.41413618      -0.07436863       0.03159539       0.41413618
O        0.78496358      12.14445474       3.60056148      -0.08061109       0.02331196       0.42601093      -0.08061109       0.02331196       0.42601093
O        8.15551358       7.88906572       3.60056148      -0.07439992       0.03278253       0.41555283      -0.07439992       0.03278253       0.41555283
O        3.24181358       7.88906572       9.00526148       0.06005896       0.38830153       0.34050368       0.06005896       0.38830153       0.34050368
O        3.24181358       7.88906572       3.60056148      -0.07997992       0.02330349       0.42645273      -0.07997992       0.02330349       0.42645273
O        5.69866358       3.63367669       9.00526148       0.06313041       0.37945143       0.34939304       0.06313041       0.37945143       0.34939304
O        5.69866358       3.63367669       3.60056148      -0.08062891       0.02350576       0.42723669      -0.08062891       0.02350576       0.42723669
O       -4.12873642      12.14445474       9.00526148       0.13179923       0.37756826       0.42600479       0.13179923       0.37756826       0.42600479
O       -4.12873642      12.14445474       3.60056148      -0.06913170       0.02752860       0.43034064      -0.06913170       0.02752860       0.43034064
O       -1.67188643       7.88906572       9.00526148       0.12667710       0.37956577       0.42277688       0.12667710       0.37956577       0.42277688
O       -1.67188643       7.88906572       3.60056148      -0.06840839       0.02768111       0.42962349      -0.06840839       0.02768111       0.42962349
O        0.78496358       3.63367669       9.00526148       0.13120637       0.37431818       0.42673708       0.13120637       0.37431818       0.42673708
O        0.78496358       3.63367669       3.60056148      -0.06846154       0.02794618       0.43187876      -0.06846154       0.02794618       0.43187876
Si       7.22166489       8.51077805       7.84595333       0.13781561      -0.00339893       0.29054181       0.13781561      -0.00339893       0.29054181
Si       7.22166489       8.51077805       2.44125333       1.22309745       0.70896654      -0.10285630       1.22309745       0.70896654      -0.10285630
Si      -1.15398245      10.50953428       6.04438667      -0.02942276       0.13017443       0.02321580      -0.02942276       0.13017443       0.02321580
Si       1.30286755      10.76741085       4.24282000       0.00001441      -0.13631597       0.02338090       0.00001441      -0.13631597       0.02338090
Si       9.67851489       4.25538903       7.84595333       0.14038714      -0.00016734       0.28863132       0.14038714      -0.00016734       0.28863132
Si       9.67851489       4.25538903       2.44125333       1.22315013       0.70928676      -0.10166319       1.22315013       0.70928676      -0.10166319
Si      12.13536489       0.00000000       2.44125333       1.22219565       0.70967755      -0.10188033       1.22219565       0.70967755      -0.10188033
Si       2.30796489       8.51077805       7.84595333       0.05733344       0.15283201      -0.08793884       0.05733344       0.15283201      -0.08793884
Si       2.30796489       8.51077805       2.44125333       1.22893137       0.71234237      -0.11945120       1.22893137       0.71234237      -0.11945120
Si       4.76481489       4.25538903       7.84595333       0.05128978       0.16412007      -0.09475320       0.05128978       0.16412007      -0.09475320
Si      12.13536489       0.00000000       7.84595333       0.14055052      -0.00389829       0.29007313       0.14055052      -0.00389829       0.29007313
Si       7.22166489       0.00000000       7.84595333       0.05567221       0.15442381      -0.09607868       0.05567221       0.15442381      -0.09607868
Si       4.76481489       4.25538903       2.44125333       1.22847652       0.71331781      -0.11862451       1.22847652       0.71331781      -0.11862451
Si       2.30796489       0.00000000       7.84595333      -0.08283756       0.07891063      -0.19888609      -0.08283756       0.07891063      -0.19888609
Si      -0.14888511       4.25538903       2.44125333       1.21597777       0.70621539      -0.12692834       1.21597777       0.70621539      -0.12692834
Si      -0.14888511       4.25538903       7.84595333      -0.07957801       0.08175225      -0.19543750      -0.07957801       0.08175225      -0.19543750
Si       2.30796489       0.00000000       2.44125333       1.21490043       0.70619462      -0.12609305       1.21490043       0.70619462      -0.12609305
Si      -2.60573511       8.51077805       2.44125333       1.21457723       0.70408003      -0.12473860       1.21457723       0.70408003      -0.12473860
Si      -2.60573511       8.51077805       7.84595333      -0.07668927       0.07546626      -0.19726275      -0.07668927       0.07546626      -0.19726275
Si       7.22166489       0.00000000       2.44125333       1.22834811       0.71315263      -0.11957258       1.22834811       0.71315263      -0.11957258
Si       3.75971755      10.50953428       6.04438667      -0.00817671       0.18626714       0.13940888      -0.00817671       0.18626714       0.13940888
Si       6.21656756       6.25414525      11.44908667       0.14856004       0.58582238       0.75104752       0.14856004       0.58582238       0.75104752
Si       6.21656756       6.25414525       6.04438667      -0.00899342       0.18809829       0.14013602      -0.00899342       0.18809829       0.14013602
Si       8.67341756       1.99875623       6.04438667      -0.00829601       0.18694979       0.13694429      -0.00829601       0.18694979       0.13694429
Si      -1.15398245      10.50953428      11.44908667      -0.20619101       0.37067635       0.87883541      -0.20619101       0.37067635       0.87883541
Si       3.75971755      10.50953428      11.44908667       0.15131888       0.54739433       0.75109424       0.15131888       0.54739433       0.75109424
Si       1.30286755       6.25414525      11.44908667      -0.20214604       0.40539579       0.93357939      -0.20214604       0.40539579       0.93357939
Si       8.67341756       1.99875623      11.44908667       0.16199878       0.56632897       0.72270950       0.16199878       0.56632897       0.72270950