245
Lattice="14.7411 0.0 0.0 -7.370549999999996 12.766167079726788 0.0 0.0 0.0 30.8094" Properties=species:S:1:pos:R:3:REF_forces:R:3:forces:R:3 REF_energy=-63728.434470631 energy=-63728.434470631 free_energy=-63728.434470631 stress="-0.0 -0.0 -0.0 -0.0 -0.0 -0.0 -0.0 -0.0 -0.0" pbc="T T T"
H       13.73458805       1.67083181       1.06662689       0.34507876       0.40035399      -0.19458101       0.34507876       0.40035399      -0.19458101
H       11.16418097       5.63856447       0.88794112      -0.41194143      -2.81923887       1.21395086      -0.41194143      -2.81923887       1.21395086
H        8.45203221      10.06250423       0.76423443       0.95021381       1.59063737       0.17221754       0.95021381       1.59063737       0.17221754
H       10.40722311      -0.26832308       1.57903331       0.39717593      -0.32234255      -0.12848244       0.39717593      -0.32234255      -0.12848244
H        8.14101643       3.53691088       1.29269187       0.70251510      -0.47447658       0.61603865       0.70251510      -0.47447658       0.61603865
H        5.22972410       8.32150779       0.99972392       0.88248363      -0.48337412       0.77023587       0.88248363      -0.48337412       0.77023587
H        8.87059128       1.44719420       0.83168401      -0.20154778      -1.39460594       0.52733541      -0.20154778      -1.39460594       0.52733541
H        5.97439537       5.96154555       1.23149462       0.46170692      -0.52336949       0.02722306       0.46170692      -0.52336949       0.02722306
H        3.92654633      10.29428224       1.54737775       0.38592871       1.63540320       0.35384595       0.38592871       1.63540320       0.35384595
H        5.60818630      -0.24756510       1.26460544      -1.13778853       0.52461447      -0.30209249      -1.13778853       0.52461447      -0.30209249
H        3.08289624       3.56702255       1.53692119       1.34474361      -0.18534879       0.26190973       1.34474361      -0.18534879       0.26190973
H        0.56757929       8.40644273       1.20097413      -1.37299339       0.76186886      -0.37391232      -1.37299339       0.76186886      -0.37391232
H        4.08437803       1.73937227       0.98120539      -0.10108958       0.19613309       0.35862469      -0.10108958       0.19613309       0.35862469
H        1.20236470       6.21221765       1.42834560       0.42089747      -0.98063040      -0.24457117       0.42089747      -0.98063040      -0.24457117
H       -1.09031256      10.53292172       1.29183569      -0.34213087      -0.57671783       0.16606695      -0.34213087      -0.57671783       0.16606695
H        0.62339927      -0.39831001       1.40716851      -1.78782066       1.09274309      -0.53723283      -1.78782066       1.09274309      -0.53723283
H       -1.73774421       3.77778845       1.27135397      -0.35883980       0.17880536       0.00809592      -0.35883980       0.17880536       0.00809592
H       -3.80578934       7.99795795       0.98036385      -0.59300511       0.10860657      -0.38914898      -0.59300511       0.10860657      -0.38914898
H        9.06318230       4.40688791      12.26725049       0.35160086       0.40943822       0.15253998       0.35160086       0.40943822       0.15253998
H        7.01812770       8.39359057      12.54201533       0.68728783       0.33290331      -0.27743141       0.68728783       0.33290331      -0.27743141
H        4.39086653      12.74000151      12.60106295      -0.71821225      -1.26777688      -0.72972787      -0.71821225      -1.26777688      -0.72972787
H        4.48145141       8.72463299      11.99828645      -0.99188533       0.91508465       0.19068099      -0.99188533       0.91508465       0.19068099
H        6.38204160       4.48006895      12.06652920       0.15136557      -0.55873245       0.22002335       0.15136557      -0.55873245       0.22002335
H        9.51101778       0.21162806      11.88409597       0.89318493      -0.39015942       0.16396666       0.89318493      -0.39015942       0.16396666
H        4.25791094       3.64906663      13.11350657       0.08011881       0.66045045       0.52667083       0.08011881       0.66045045       0.52667083
H        2.09217416       8.01391693      12.83237148       1.22027456       0.81362840       0.80463814       1.22027456       0.81362840       0.80463814
H       -0.37888327      12.68622472      12.38186519       0.08043507       0.11463071       0.07328361       0.08043507       0.11463071       0.07328361
H       -0.83659032       9.27765974      12.79894868       0.12879379      -0.59889356       0.29676487       0.12879379      -0.59889356       0.29676487
H        1.94357248       4.41272247      12.03029398       0.60137855       0.36894021       0.08841127       0.60137855       0.36894021       0.08841127
H        4.65034945       0.47789102      12.07868211      -1.65355654      -0.68244378      -1.08424132      -1.65355654      -0.68244378      -1.08424132
H        0.04298478       3.93471796      12.27787974       0.50942767       1.19077864      -0.27245153       0.50942767       1.19077864      -0.27245153
H       -2.98558999       8.67789476      12.36979340      -0.28975227      -0.50148825      -0.06429026      -0.28975227      -0.50148825      -0.06429026
H       -5.26799053      12.65624794      12.22049169       0.37165402       0.35503024      -0.15885308       0.37165402       0.35503024      -0.15885308
H       -0.89308603       0.13009846      12.50056724      -0.05476048       0.15455143       0.05769750      -0.05476048       0.15455143       0.05769750
H       -3.58015860       4.45146794      12.10954285       1.29219268      -2.20971541      -0.72067477       1.29219268      -2.20971541      -0.72067477
H       -5.40700118       8.64797087      12.13196415       0.53356260      -0.20867220       0.28960699       0.53356260      -0.20867220       0.28960699
O        1.81196957       1.64049353       2.77717439       0.29712319      -0.39462708      -0.22753474       0.29712319      -0.39462708      -0.22753474
O        6.50656546       9.80421684       8.29349427      -0.30380326       0.54841607       0.36669107      -0.30380326       0.54841607       0.36669107
O        3.66994763       9.33817692      11.93069788       0.58764976      -1.30715256      -0.01122003       0.58764976      -1.30715256      -0.01122003
O        3.13198722      11.21659806       9.94290344      -1.85988120      -0.26003794      -0.56608868      -1.85988120      -0.26003794      -0.56608868
O        5.53216636      10.59908784      10.73494279       1.15027226      -0.02732636      -0.86945383       1.15027226      -0.02732636      -0.86945383
O       -1.28696660      11.80809340       7.12157420       0.14280994       0.34731231      -0.05253995       0.14280994       0.34731231      -0.05253995
O        0.80836387      12.18992181       8.76782406       1.09749481      -0.27723857       0.77490928       1.09749481      -0.27723857       0.77490928
O        6.34194229      10.07652084       2.74436023      -0.09128712      -0.28467880      -0.07364249      -0.09128712      -0.28467880      -0.07364249
O        8.91462017       5.36068416       8.49605426      -0.12474981       0.03476561      -0.39919204      -0.12474981       0.03476561      -0.39919204
O        9.05492643       5.86688191       2.61300046      -0.18088480      -0.40266399       1.22155778      -0.18088480      -0.40266399       1.22155778
O       13.42714684       0.73641105       0.97665044      -0.06142014       0.01163243       0.45686242      -0.06142014       0.01163243       0.45686242
O       10.96337543       4.62314544       1.16401558       1.09139115       3.15952442      -1.45443326       1.09139115       3.15952442      -1.45443326
O        8.01875420       9.22053478       0.75302353      -0.43919531      -1.22829314       0.16689915      -0.43919531      -1.22829314       0.16689915
O        8.59545256       0.47494250       0.99586264       0.48696199       2.02461850       0.08181063       0.48696199       2.02461850       0.08181063
O        6.07960224       4.97295636       1.39588105       0.38719937       1.13564859      -1.26174036       0.38719937       1.13564859      -1.26174036
O        3.59616827       9.41492472       1.36634448      -0.30889591      -2.04076383      -0.25047401      -0.30889591      -2.04076383      -0.25047401
O        3.72653640       0.81975735       0.91918379      -0.85153774      -1.32001541       1.07630850      -0.85153774      -1.32001541       1.07630850
O        1.26461157       5.18672428       1.40823484       0.03950213       0.62749541      -0.34439430       0.03950213       0.62749541      -0.34439430
O       -1.38313110       9.55388446       1.24155338       1.16336615       0.65627692      -1.05011747       1.16336615       0.65627692      -1.05011747
O        8.55598195       3.57397105      12.30874978      -1.15617993       0.90320867       1.58995868      -1.15617993       0.90320867       1.58995868
O        6.34872850       7.70497948      12.41683516      -1.00382374       0.58669757       0.72680466      -1.00382374       0.58669757       0.72680466
O        3.75568697      11.94952298      12.43098581       0.63072766       0.17069808      -0.69119779       0.63072766       0.17069808      -0.69119779
O        3.51927270       3.33896947      12.56517653       0.08325458      -0.89339300      -0.61045132       0.08325458      -0.89339300      -0.61045132
O        1.23864032       7.75070177      12.50448234      -0.94052766      -0.80397192      -1.26456250      -0.94052766      -0.80397192      -1.26456250
O       -1.20338140      12.15710541      12.27493056       0.67936121      -0.35568997      -0.37413601       0.67936121      -0.35568997      -0.37413601
O       -0.67778873       3.31084488      12.42516022      -0.87706114      -0.55338026       0.37824938      -0.87706114      -0.55338026       0.37824938
O       -3.64102557       7.92450199      12.47719274       0.31884274      -0.72818639      -0.88115003       0.31884274      -0.72818639      -0.88115003
O       -5.79330370      11.88321677      12.48557457      -0.64088110       0.02886826       0.98927464      -0.64088110       0.02886826       0.98927464
O       11.63824010       1.70610873       2.92346500       0.31163058      -1.40762078      -1.26000790       0.31163058      -1.40762078      -1.26000790
O        1.34425622       9.65534064       8.61495420       0.24765766       0.07272622      -0.18531257       0.24765766       0.07272622      -0.18531257
O        1.56992368       9.96762895       3.02813749      -0.65001651       0.85152740       0.58786600      -0.65001651       0.85152740       0.58786600
O        3.99645734       5.46549126       8.71437153       0.05368081      -0.98725943      -1.75131558       0.05368081      -0.98725943      -1.75131558
O       11.22670959       1.17071683       8.56470343       0.74848665       0.31168251      -0.24542689       0.74848665       0.31168251      -0.24542689
O        6.35802949       1.20974121       8.66060458      -1.44406495       0.63544107       0.70126192      -1.44406495       0.63544107       0.70126192
O        6.52167181       1.49040535       2.86597205       1.13183733      -0.77871877      -0.82942350       1.13183733      -0.77871877      -0.82942350
O       -3.52639754       9.64943869       8.38434682       0.56641908      -0.26069045      -1.08096655       0.56641908      -0.26069045      -1.08096655
O       -3.47030368       9.72572791       3.00608840      -0.07689354      -0.68899830      -1.99156494      -0.07689354      -0.68899830      -1.99156494
O       -1.08526009       5.45199318       8.45302862       0.03127656       1.16316350       1.07819999       0.03127656       1.16316350       1.07819999
O       -0.90197775       5.64822394       2.89591732       0.46740180      -0.43916894      -1.18037087       0.46740180      -0.43916894      -1.18037087
O        1.45609857       1.30920857       8.32921961       0.93391183      -0.16600330      -0.83296743       0.93391183      -0.16600330      -0.83296743
O        3.98840754       5.54876720       2.89872509      -1.65950923       2.20433844       0.89382177      -1.65950923       2.20433844       0.89382177
O       13.20502759       0.81855228       6.53589920      -0.34163209       0.04723906      -0.16131580      -0.34163209       0.04723906      -0.16131580
O       13.25565493       0.90402407      12.35425074       0.45768314      -0.94687943      -0.34726625       0.45768314      -0.94687943      -0.34726625
O        8.58655159       9.28076023      12.15399819      -1.07861653      -0.03677215       0.14070959      -1.07861653      -0.03677215       0.14070959
O       10.83941292       5.30222888      12.30643012      -1.27392181       2.92986673       0.70611672      -1.27392181       2.92986673       0.70611672
O        8.32531616       9.19639604       6.52466181       1.00330842       1.00805249      -1.55515135       1.00330842       1.00805249      -1.55515135
O        3.34265130       9.41757249       6.55055176      -0.75712109      -0.31703918       1.77239833      -0.75712109      -0.31703918       1.77239833
O       10.64219624       5.08604142       6.44025113       0.32947183       0.42115766      -0.02150324       0.32947183       0.42115766      -0.02150324
O        5.73265879       5.19724179      12.18742278       0.74880303       0.17811875      -0.81221336       0.74880303       0.17811875      -0.81221336
O       -1.52822946       9.34383724       6.57012652       1.76341714       1.06048473      -1.92801186       1.76341714       1.06048473      -1.92801186
O        8.86327785       0.91570433      12.02593559      -1.50362450       0.88781192       0.07962321      -1.50362450       0.88781192       0.07962321
O        7.98847018       0.84114548       6.66732916       0.70780260       0.01729645      -1.09700992       0.70780260       0.01729645      -1.09700992
O       -1.47630503       9.50116970      12.09956143       0.37563730      -0.21153305       0.05224412       0.37563730      -0.21153305       0.05224412
O        1.21077494       5.02926474      11.83091587      -0.40335392      -0.20079890       0.31842230      -0.40335392      -0.20079890       0.31842230
O        0.99533154       5.03128657       6.85945281       0.66786783       0.50799274      -0.56033646       0.66786783       0.50799274      -0.56033646
O        3.76909879       0.72593889      11.55424826       1.74937970      -0.17722290       1.96328087       1.74937970      -0.17722290       1.96328087
O        3.45397608       0.74186747       6.54822280       0.09148862       0.50561336      -0.08691555       0.09148862       0.50561336      -0.08691555
O        5.70445033       5.16056879       6.52119151      -0.40317410      -1.12676116       0.53879178      -0.40317410      -1.12676116       0.53879178
O       12.72666940       2.96530757       4.89266785       0.26322834      -0.72284499       0.98814712       0.26322834      -0.72284499       0.98814712
O       13.01368055       2.43456327      10.12382798       0.34098125      -0.34427182       0.14359897       0.34098125      -0.34427182       0.14359897
O        7.95577365      11.17582597      10.20554136      -0.28826842      -0.37928612      -0.88545564      -0.28826842      -0.37928612      -0.88545564
O       10.29804012       6.83564795      10.16042989       1.31212402       0.65049617       0.16577210       1.31212402       0.65049617       0.16577210
O        7.82048913      11.11470880       4.66225033       0.42465209       0.44025783       0.65231655       0.42465209       0.44025783       0.65231655
O        3.02492365      11.22129143       4.76200546      -0.37053954       0.57014569      -0.34693358      -0.37053954       0.57014569      -0.34693358
O       10.19665943       7.10885838       4.70601108      -0.57076617      -0.59620491      -0.07453337      -0.57076617      -0.59620491      -0.07453337
O        5.57294602       6.94935047      10.09964403      -0.86757368       0.58060115      -0.72934579      -0.86757368       0.58060115      -0.72934579
O       -2.12193823      10.99530187       4.69577722       2.84835833       1.26077330       0.63974569       2.84835833       1.26077330       0.63974569
O        8.07032344       2.51163172      10.00327620       0.71241050       0.03443868       0.69304447       0.71241050       0.03443868       0.69304447
O        7.86102030       2.69696724       4.83999980      -0.50373354       0.28777325       0.07015842      -0.50373354       0.28777325       0.07015842
O       -1.90506253      11.00457269      10.02421280       0.08185960      -0.10995786      -0.64594167       0.08185960      -0.10995786      -0.64594167
O        0.44989578       6.90627572      10.18909251       0.07492754       0.02636797      -0.60409931       0.07492754       0.02636797      -0.60409931
O        0.48622302       6.90559592       4.84199904      -0.31017904      -0.47209313       0.22219618      -0.31017904      -0.47209313       0.22219618
O        3.01160288       2.76490751      10.05315469       1.86466220      -0.18831252       1.14620884       1.86466220      -0.18831252       1.14620884
O        2.94244320       2.73429359       4.76948162       0.33910173       0.16055266       0.91090424       0.33910173       0.16055266       0.91090424
O        5.21414944       7.01265617       4.71309804       0.13566076       0.50955132       0.20564038       0.13566076       0.50955132       0.20564038
O        5.44001214      10.40493762       5.26405031       1.09416584       0.06119581      -0.40458518       1.09416584       0.06119581      -0.40458518
O        7.88289034       6.30295884      10.82839674       1.49764750      -0.96115012      -0.23614376       1.49764750      -0.96115012      -0.23614376
O        7.61779823       6.15347698       5.02262905       0.56018893       0.68572219       0.29227916       0.56018893       0.68572219       0.29227916
O       10.55821442       2.58552252      10.96254167       0.86435612      -0.78238839      -0.82727629       0.86435612      -0.78238839      -0.82727629
O       10.26802159       1.68883864       5.33897101       0.52276328       0.36462385      -0.76895927       0.52276328       0.36462385      -0.76895927
O        0.71547209      10.72399974      10.99094054      -0.44005011       0.14492891      -1.08253509      -0.44005011       0.14492891      -1.08253509
O        0.43975110      10.54868616       5.42850199       1.68048644       0.85498632      -0.88704506       1.68048644       0.85498632      -0.88704506
O        2.96496911       6.59652353      10.77203594       2.00930377       0.13643563      -0.40238174       2.00930377       0.13643563      -0.40238174
O        5.53505698       2.47448427      10.89153104      -0.81288824       0.24018736       2.42866701      -0.81288824       0.24018736       2.42866701
O        5.36816901       1.61763383       5.16897172      -0.88589593       1.26077465       0.99120539      -0.88589593       1.26077465       0.99120539
O       -4.32122672      10.49219786      10.77320889       0.07257336      -0.68740383       0.14425816       0.07257336      -0.68740383       0.14425816
O       -4.52132041      10.39680229       5.19322086      -0.11821587       0.35154282       0.04135335      -0.11821587       0.35154282       0.04135335
O       -1.95841002       6.31112684      10.85692496       0.30256165       0.49953075      -0.61280223       0.30256165       0.49953075      -0.61280223
O       -2.01181391       6.10648495       5.19752089      -0.51329506       0.25927624       0.03070674      -0.51329506       0.25927624       0.03070674
O        0.67173475       1.66157360      10.75730972       0.69434223      -0.23068593       0.35679447       0.69434223      -0.23068593       0.35679447
O        0.37911034       1.71914432       5.07730789       1.02458081       0.28758548       0.17797101       1.02458081       0.28758548       0.17797101
O        2.86509575       5.92549394       5.35726916       0.48574655       0.54449844      -0.77604471       0.48574655       0.54449844      -0.77604471
O        8.92846652       3.13993011       1.78528782      -1.20177595       1.36176738      -0.32913556      -1.20177595       1.36176738      -0.32913556
O        9.12545263       3.15775635       7.13658107      -0.49353662       0.23338218       0.85886461      -0.49353662       0.23338218       0.85886461
O       -0.94656178      12.07139200       1.50506566       0.41031259      -1.05055735       0.16671277       0.41031259      -1.05055735       0.16671277
O        6.23247644       7.64130055       7.04535377       0.10074185      -0.77093562      -0.60947491       0.10074185      -0.77093562      -0.60947491
O        3.93731291      12.09680186       1.73843489      -0.65205831       0.24526879      -0.30213424      -0.65205831       0.24526879      -0.30213424
O        3.93345419      11.92016670       7.07160771      -0.38705324      -2.12844190      -1.31926783      -0.38705324      -2.12844190      -1.31926783
O        6.00948604       7.82427495       1.42285347      -0.91448141      -0.15847952      -0.26518430      -0.91448141      -0.15847952      -0.26518430
O        1.61498196       7.57682517       7.02512288       0.05996189       2.25549469       2.23840330       0.05996189       2.25549469       2.23840330
O        1.40142123       7.97126668       1.35284050       0.51234191      -1.61027809      -0.35353694       0.51234191      -1.61027809      -0.35353694
O        4.10568007       3.20929538       7.16244378       0.50831328       0.83563074      -0.31150594       0.50831328       0.83563074      -0.31150594
O        4.02737017       3.27652047       1.75250194      -2.20077214      -0.70469771      -1.37668020      -2.20077214      -0.70469771      -1.37668020
O       -5.85597146      11.80783350       7.00287027      -0.17331020       0.46600991       0.23903304      -0.17331020       0.46600991       0.23903304
O       -5.88700281      12.05232038       1.62098706       2.90201420      -0.22266114       0.64074882       2.90201420      -0.22266114       0.64074882
O       -3.40152298       7.54801495       7.03890206      -0.40515736      -1.08711581      -0.86660179      -0.40515736      -1.08711581      -0.86660179
O       -3.16600565       7.60108612       1.58506782       0.53993037      -0.51982672      -0.39288060       0.53993037      -0.51982672      -0.39288060
O       -0.72066011       3.18355412       7.21383994      -0.21212392      -0.96639307      -1.24102260      -0.21212392      -0.96639307      -1.24102260
O       -0.88949018       3.37059208       1.53964733       1.44390287       0.81222301       0.68138060       1.44390287       0.81222301       0.68138060
O       10.50844592       3.88845566       3.79085067      -0.00576578       0.18353537      -1.02472522      -0.00576578       0.18353537      -1.02472522
O       11.04686092       3.90194006       8.87508969       0.55483850      -1.31741926      -0.30455198       0.55483850      -1.31741926      -0.30455198
O        5.96348574      12.37355692       8.85133208       0.52394013      -0.97727884       0.03782671       0.52394013      -0.97727884       0.03782671
O        8.22278090       7.88138637       8.78842661       0.75821497      -0.28616148       0.27157397       0.75821497      -0.28616148       0.27157397
O        5.90107769      12.48378021       3.45338407       0.14599099      -0.54472017       0.85512546       0.14599099      -0.54472017       0.85512546
O        0.94032231      12.42576742       3.50491567       0.29388282      -0.77106853       1.12405849       0.29388282      -0.77106853       1.12405849
O        8.07883516       8.16171456       3.28493968      -0.48891199       0.05489505      -0.09504448      -0.48891199       0.05489505      -0.09504448
O        3.51782081       8.09052663       8.77493110       1.15115291       0.15729935       0.82336711       1.15115291       0.15729935       0.82336711
O        2.82905344       7.84883361       3.53947451       1.88920630      -1.21483738       0.68684301       1.88920630      -1.21483738       0.68684301
O        6.10419704       3.85121799       8.77059642       0.42062960      -0.38503101       0.76313752       0.42062960      -0.38503101       0.76313752
O        5.74167600       3.86433977       3.66906293       0.86780166      -1.60355297       1.54994794       0.86780166      -1.60355297       1.54994794
O       -4.17887051      12.19148425       8.95473080       0.87251779       0.89093322      -0.85360865       0.87251779       0.89093322      -0.85360865
O       -4.00579100      12.28722314       3.37597836      -0.16967705       2.50164189      -1.33683297      -0.16967705       2.50164189      -1.33683297
O       -1.52907323       8.04012656       8.81099774       0.51598156      -0.07861329       0.05481866       0.51598156      -0.07861329       0.05481866
O       -1.47639742       8.20041192       3.58617611       0.64666881      -1.28193910      -0.20265690       0.64666881      -1.28193910      -0.20265690
O        0.81133589       3.74071377       9.20305670       0.76361838       0.19566924       0.54955651       0.76361838       0.19566924       0.54955651
O        0.76295555       3.80934372       3.64158560       0.01863484       0.98893109      -0.04881104       0.01863484       0.98893109      -0.04881104
Si       7.37657179       8.60634954       7.63005233      -0.48642624      -0.04084478       1.69883297      -0.48642624      -0.04084478       1.69883297
Si       7.15157855       8.81511564       2.08299043       0.04810344      -0.15057558      -0.33566506       0.04810344      -0.15057558      -0.33566506
Si      -1.06694910      10.75938373       5.89395177      -1.81828101      -0.93461102       0.19275024      -1.81828101      -0.93461102       0.19275024
Si       1.50345043      11.06375560       4.26231641      -0.39228996      -0.70771433      -1.66506107      -0.39228996      -0.70771433      -1.66506107
Si       9.97832266       4.37721362       7.73860821       0.20599855       0.20173559       0.35774267       0.20599855       0.20173559       0.35774267
Si       9.85489201       4.44201393       2.33953720      -0.09187746      -0.68767410       1.45935917      -0.09187746      -0.68767410       1.45935917
Si      12.44034503       0.41214821       2.23000810      -0.91929557      -0.04061432       0.91517441      -0.91929557      -0.04061432       0.91517441
Si       2.43550067       8.76429687       7.84096847       0.40405438      -0.93074522      -3.64103759       0.40405438      -0.93074522      -3.64103759
Si       2.42268771       8.78820302       2.30914169      -0.09577834       1.27068081       0.31945525      -0.09577834       1.27068081       0.31945525
Si       4.97623286       4.52629034       7.80547283      -0.83758758      -2.51532318       0.44051600      -0.83758758      -2.51532318       0.44051600
Si      12.30354215       0.17693184       7.72513365       0.39788447       1.71223691       1.66863661       0.39788447       1.71223691       1.66863661
Si       7.10403002       0.09313529       7.79755076       0.34759061       1.36227214      -0.21516769       0.34759061       1.36227214      -0.21516769
Si       4.94968138       4.42894611       2.37904606       1.26461269      -0.47367417       0.61712814       1.26461269      -0.47367417       0.61712814
Si       2.48657955       0.19818417       7.70552314      -1.39450417      -1.72734913       0.18826294      -1.39450417      -1.72734913       0.18826294
Si       0.13629652       4.48715978       2.32775786      -2.26039017       0.31718512      -0.56476264      -2.26039017       0.31718512      -0.56476264
Si       0.04381479       4.39316725       7.98370633      -1.51583028      -0.43155846      -1.24459025      -1.51583028      -0.43155846      -1.24459025
Si       2.66658421       0.37786260       2.16035821      -1.26846834      -0.74896914      -1.02789303      -1.26846834      -0.74896914      -1.02789303
Si      -2.31091178       8.81983568       2.29177118      -0.65405250      -1.01001946       1.99452614      -0.65405250      -1.01001946       1.99452614
Si      -2.43003985       8.67216486       7.60785577      -2.04316289      -0.74640073       3.20270709      -2.04316289      -0.74640073       3.20270709
Si       7.52109663       0.27973730       2.23739216      -0.76657769       1.15567996       0.35059333      -0.76657769       1.15567996       0.35059333
Si       4.05179448      10.73223078       5.91586789      -3.01450642       0.27834471       1.74113557      -3.01450642       0.27834471       1.74113557
Si       6.40082616       6.49011312      11.40121149       0.10801580       0.30829285       0.69207594       0.10801580       0.30829285       0.69207594
Si       6.24588167       6.48692383       5.89121819       0.52114433       1.63028284      -2.43364506       0.52114433       1.63028284      -2.43364506
Si       8.80613035       2.08699746       6.00738087       0.49418528      -0.69594909      -0.32627645       0.49418528      -0.69594909      -0.32627645
Si      -0.90914684      10.80453798      11.30282575      -0.48787211       1.56036203      -0.16239514      -0.48787211       1.56036203      -0.16239514
Si       4.01623623      10.76479632      11.25659674       0.40758039       1.25267768       1.18417966       0.40758039       1.25267768       1.18417966
Si       1.50251864       6.57528878      11.38360036      -0.90232644       0.12925246      -0.07883056      -0.90232644       0.12925246      -0.07883056
Si       8.99887796       2.40392122      11.34982091       0.76710888      -1.80036687      -0.65223769       0.76710888      -1.80036687      -0.65223769